file 963063 1742206897                                          
version 3
run General-0-20250317-10:10:02-13336
attr configname General
attr datetime 20250317-10:10:02
attr datetimef 20250317-101002
attr experiment General
attr inifile omnetpp.ini
attr iterationvars ""
attr iterationvarsd ""
attr iterationvarsf ""
attr measurement ""
attr network RSVPTE4
attr processid 13336
attr repetition 0
attr replication #0
attr resultdir results
attr runnumber 0
attr seedset 0
config image-path ../../../images
config network RSVPTE4
config sim-time-limit 50s
config total-stack 64MiB
config **.host{1..2,5}.numApps 1
config **.host{1..2,5}.app[*].typename UdpBasicApp
config **.host{1..2,5}.app[0].localPort 100
config **.host{1..2,5}.app[0].destPort 100
config **.host{1..2,5}.app[0].messageLength "128 bytes"
config **.host{1..2,5}.app[0].sendInterval 0.01s
config **.host{1..2,5}.app[0].destAddresses "\"host3\""
config **.host3.numApps 1
config **.host3.app[0].typename UdpSink
config **.host3.app[0].localPort 100
config **.host1.ipv4.routingTable.routingFile "\"host1.rt\""
config **.host2.ipv4.routingTable.routingFile "\"host2.rt\""
config **.host3.ipv4.routingTable.routingFile "\"host3.rt\""
config **.host4.ipv4.routingTable.routingFile "\"host4.rt\""
config **.host5.ipv4.routingTable.routingFile "\"host5.rt\""
config **.LSR1.classifier.config "xmldoc(\"LSR1_fec.xml\")"
config **.LSR1.rsvp.traffic "xmldoc(\"LSR1_rsvp.xml\")"
config **.LSR*.rsvp.helloInterval 0.2s
config **.LSR*.rsvp.helloTimeout 0.5s
config **.LSR1.ipv4.routingTable.routingFile "\"LSR1.rt\""
config **.LSR2.ipv4.routingTable.routingFile "\"LSR2.rt\""
config **.LSR3.ipv4.routingTable.routingFile "\"LSR3.rt\""
config **.LSR4.ipv4.routingTable.routingFile "\"LSR4.rt\""
config **.LSR5.ipv4.routingTable.routingFile "\"LSR5.rt\""
config **.LSR6.ipv4.routingTable.routingFile "\"LSR6.rt\""
config **.LSR7.ipv4.routingTable.routingFile "\"LSR7.rt\""
config **.ppp[*].queue.typename DropTailQueue
config **.ppp[*].queue.packetCapacity 10
config **.scenarioManager.script "xml(\"<scenario/>\")"

vector 4 RSVPTE4.LSR1.ipv4.ip packetDropNoRouteFound:vector(packetBytes) ETV
attr interpolationmode none
attr recordingmode vector(packetBytes)
attr source packetDropReasonIsNoRouteFound(packetDropped)
attr title "packet drop: no route found, packetBytes"
4	186411 234 301 715 0.022173333333 0.042173333333 9 156 156 1404 219024
vector 12 RSVPTE4.LSR1.ppp[0].queue queueLength:vector ETV
attr autoWarmupFilter false
attr interpolationmode sample-hold
attr recordingmode vector
attr source "warmup(atomic(constant0(packetPushEnded) + count(packetPushStarted) - count(packetPulled) - count(packetRemoved) - count(packetDropped)))"
attr title "queue length"
attr unit pk
12	186645 15649 0 15498 0 1.1744 603 0 4 511 847
vector 13 RSVPTE4.LSR1.ppp[0].queue queueBitLength:vector ETV
attr autoWarmupFilter false
attr interpolationmode sample-hold
attr recordingmode vector
attr source "warmup(atomic(constant0(packetPushEnded) + sum(packetLength(packetPushStarted)) - sum(packetLength(packetPulled)) - sum(packetLength(packetRemoved)) - sum(packetLength(packetDropped))))"
attr title "queue bit length"
attr unit b
13	202294 16718 0 15498 0 1.1744 603 0 5056 612928 1218175360
vector 14 RSVPTE4.LSR1.ppp[0].queue queueingTime:vector ETV
attr interpolationmode none
attr recordingmode vector
attr source queueingTime(packetPulled)
attr title "queueing times"
attr unit s
14	219012 12430 52 15498 0.007958745046 1.1744 359 0 0.007969375454 0.759772495328 0.0027863897664353
vector 15 RSVPTE4.LSR1.ppp[0].queue incomingPacketLengths:vector ETV
attr interpolationmode none
attr recordingmode vector
attr source packetLength(packetPushStarted)
attr title "incoming packet lengths"
attr unit b
15	231442 10448 52 15485 0.007958745046 1.172173333333 359 168 8224 442024 609039296
vector 16 RSVPTE4.LSR1.ppp[0].queue incomingDataRate:vector ETV
attr interpolationmode linear
attr recordingmode vector
attr source throughput(packetPushStarted)
attr title "incoming datarate"
attr unit bps
16	241890 222 1720 14851 0.1 1.1 11 365440 434960 4215440 1619190201600
16	957986 41 15562 15562 1.182173333333 1.182173333333 1 249229.27145972 249229.27145972 249229.27145972 62115229752.343
vector 17 RSVPTE4.LSR1.ppp[0].queue outgoingPacketLengths:vector ETV
attr interpolationmode none
attr recordingmode vector
attr source packetLength(packetPulled)
attr title "outgoing packet lengths"
attr unit b
17	242112 10390 52 15498 0.007958745046 1.1744 359 168 8224 442024 609039296
vector 18 RSVPTE4.LSR1.ppp[0].queue outgoingDataRate:vector ETV
attr interpolationmode linear
attr recordingmode vector
attr source throughput(packetPulled)
attr title "outgoing datarate"
attr unit bps
18	252502 222 1653 14851 0.1 1.1 11 358080 442320 4215440 1620321875200
18	958027 41 15562 15562 1.182173333333 1.182173333333 1 249229.27145972 249229.27145972 249229.27145972 62115229752.343
vector 23 RSVPTE4.LSR1.ppp[0].ppp transmissionState:vector ETV
attr interpolationmode sample-hold
attr recordingmode vector
attr source transmissionStateChanged
attr title "tx state"
23	252724 18707 0 15510 0 1.176626666667 719 0 1 359 359
vector 24 RSVPTE4.LSR1.ppp[0].ppp txPk:vector(packetBytes) ETV
attr interpolationmode none
attr recordingmode vector(packetBytes)
attr source packetSentToLower
attr title "packets transmitted, packetBytes"
24	271431 10034 52 15498 0.007958745046 1.1744 359 28 1035 57766 10307372
vector 25 RSVPTE4.LSR1.ppp[0].ppp rxPkOk:vector(packetBytes) ETV
attr interpolationmode none
attr recordingmode vector(packetBytes)
attr source rxPkOk
attr title "packets received OK, packetBytes"
25	281465 974 468 14523 0.031331281637 1.084 37 28 1323 5411 2509997
vector 28 RSVPTE4.LSR1.ppp[0].ppp rcvdPkFromHl:vector(packetBytes) ETV
attr interpolationmode none
attr recordingmode vector(packetBytes)
attr source packetReceivedFromUpper
attr title "packets received from higher layer, packetBytes"
28	282439 10034 52 15498 0.007958745046 1.1744 359 21 1028 55253 9516239
vector 29 RSVPTE4.LSR1.ppp[0].ppp passedUpPk:vector(packetBytes) ETV
attr interpolationmode none
attr recordingmode vector(packetBytes)
attr source packetSentToUpper
attr title "packets passed to higher layer, packetBytes"
29	292473 974 468 14523 0.031331281637 1.084 37 21 1316 5152 2436056
vector 32 RSVPTE4.LSR1.ppp[1].queue queueLength:vector ETV
attr autoWarmupFilter false
attr interpolationmode sample-hold
attr recordingmode vector
attr source "warmup(atomic(constant0(packetPushEnded) + count(packetPushStarted) - count(packetPulled) - count(packetRemoved) - count(packetDropped)))"
attr title "queue length"
attr unit pk
32	293447 1212 0 15486 0 1.172173333333 51 0 2 13 17
vector 33 RSVPTE4.LSR1.ppp[1].queue queueBitLength:vector ETV
attr autoWarmupFilter false
attr interpolationmode sample-hold
attr recordingmode vector
attr source "warmup(atomic(constant0(packetPushEnded) + sum(packetLength(packetPushStarted)) - sum(packetLength(packetPulled)) - sum(packetLength(packetRemoved)) - sum(packetLength(packetDropped))))"
attr title "queue bit length"
attr unit b
33	294659 1241 0 15486 0 1.172173333333 51 0 9376 22152 110033472
vector 34 RSVPTE4.LSR1.ppp[1].queue queueingTime:vector ETV
attr interpolationmode none
attr recordingmode vector
attr source queueingTime(packetPulled)
attr title "queueing times"
attr unit s
34	295900 1028 53 15486 0.007958745046 1.172173333333 37 0 0.0138 0.022717297077 0.00020248844922851
vector 35 RSVPTE4.LSR1.ppp[1].queue incomingPacketLengths:vector ETV
attr interpolationmode none
attr recordingmode vector
attr source packetLength(packetPushStarted)
attr title "incoming packet lengths"
attr unit b
35	296928 1039 53 15486 0.007958745046 1.172173333333 37 168 9376 45552 139472256
vector 36 RSVPTE4.LSR1.ppp[1].queue incomingDataRate:vector ETV
attr interpolationmode linear
attr recordingmode vector
attr source throughput(packetPushStarted)
attr title "incoming datarate"
attr unit bps
36	297967 197 1696 14853 0.1 1.1 11 0 186560 351440 47529913600
36	958068 40 15562 15562 1.182173333333 1.182173333333 1 126659.0945973 126659.0945973 126659.0945973 16042526244.208
vector 37 RSVPTE4.LSR1.ppp[1].queue outgoingPacketLengths:vector ETV
attr interpolationmode none
attr recordingmode vector
attr source packetLength(packetPulled)
attr title "outgoing packet lengths"
attr unit b
37	298164 1024 53 15486 0.007958745046 1.172173333333 37 168 9376 45552 139472256
vector 38 RSVPTE4.LSR1.ppp[1].queue outgoingDataRate:vector ETV
attr interpolationmode linear
attr recordingmode vector
attr source throughput(packetPulled)
attr title "outgoing datarate"
attr unit bps
38	299188 197 1696 14853 0.1 1.1 11 0 186560 351440 47529913600
38	958108 40 15562 15562 1.182173333333 1.182173333333 1 126659.0945973 126659.0945973 126659.0945973 16042526244.208
vector 43 RSVPTE4.LSR1.ppp[1].ppp transmissionState:vector ETV
attr interpolationmode sample-hold
attr recordingmode vector
attr source transmissionStateChanged
attr title "tx state"
43	299385 1800 0 15499 0 1.1744 75 0 1 37 37
vector 44 RSVPTE4.LSR1.ppp[1].ppp txPk:vector(packetBytes) ETV
attr interpolationmode none
attr recordingmode vector(packetBytes)
attr source packetSentToLower
attr title "packets transmitted, packetBytes"
44	301185 989 53 15486 0.007958745046 1.172173333333 37 28 1179 5953 2260783
vector 45 RSVPTE4.LSR1.ppp[1].ppp rxPkOk:vector(packetBytes) ETV
attr interpolationmode none
attr recordingmode vector(packetBytes)
attr source rxPkOk
attr title "packets received OK, packetBytes"
45	302174 957 285 14993 0.021331281637 1.115583030667 36 28 819 5233 1889353
vector 48 RSVPTE4.LSR1.ppp[1].ppp rcvdPkFromHl:vector(packetBytes) ETV
attr interpolationmode none
attr recordingmode vector(packetBytes)
attr source packetReceivedFromUpper
attr title "packets received from higher layer, packetBytes"
48	303131 989 53 15486 0.007958745046 1.172173333333 37 21 1172 5694 2179254
vector 49 RSVPTE4.LSR1.ppp[1].ppp passedUpPk:vector(packetBytes) ETV
attr interpolationmode none
attr recordingmode vector(packetBytes)
attr source packetSentToUpper
attr title "packets passed to higher layer, packetBytes"
49	304120 957 285 14993 0.021331281637 1.115583030667 36 21 812 4981 1817855
vector 52 RSVPTE4.LSR1.ppp[2].queue queueLength:vector ETV
attr autoWarmupFilter false
attr interpolationmode sample-hold
attr recordingmode vector
attr source "warmup(atomic(constant0(packetPushEnded) + count(packetPushStarted) - count(packetPulled) - count(packetRemoved) - count(packetDropped)))"
attr title "queue length"
attr unit pk
52	305077 125 0 723 0 0.042173333333 8 0 0 0 0
vector 53 RSVPTE4.LSR1.ppp[2].queue queueBitLength:vector ETV
attr autoWarmupFilter false
attr interpolationmode sample-hold
attr recordingmode vector
attr source "warmup(atomic(constant0(packetPushEnded) + sum(packetLength(packetPushStarted)) - sum(packetLength(packetPulled)) - sum(packetLength(packetRemoved)) - sum(packetLength(packetDropped))))"
attr title "queue bit length"
attr unit b
53	305202 125 0 723 0 0.042173333333 8 0 0 0 0
vector 54 RSVPTE4.LSR1.ppp[2].queue queueingTime:vector ETV
attr interpolationmode none
attr recordingmode vector
attr source queueingTime(packetPulled)
attr title "queueing times"
attr unit s
54	305327 75 311 723 0.022173333333 0.042173333333 3 0 0 0 0
vector 55 RSVPTE4.LSR1.ppp[2].queue incomingPacketLengths:vector ETV
attr interpolationmode none
attr recordingmode vector
attr source packetLength(packetPushStarted)
attr title "incoming packet lengths"
attr unit b
55	305402 81 311 723 0.022173333333 0.042173333333 3 448 448 1344 602112
vector 56 RSVPTE4.LSR1.ppp[2].queue incomingDataRate:vector ETV
attr interpolationmode linear
attr recordingmode vector
attr source throughput(packetPushStarted)
attr title "incoming datarate"
attr unit bps
56	958148 205 15562 15562 0.1 1.182173333333 12 0 13440 13440 180633600
vector 57 RSVPTE4.LSR1.ppp[2].queue outgoingPacketLengths:vector ETV
attr interpolationmode none
attr recordingmode vector
attr source packetLength(packetPulled)
attr title "outgoing packet lengths"
attr unit b
57	305483 81 311 723 0.022173333333 0.042173333333 3 448 448 1344 602112
vector 58 RSVPTE4.LSR1.ppp[2].queue outgoingDataRate:vector ETV
attr interpolationmode linear
attr recordingmode vector
attr source throughput(packetPulled)
attr title "outgoing datarate"
attr unit bps
58	958353 205 15562 15562 0.1 1.182173333333 12 0 13440 13440 180633600
vector 63 RSVPTE4.LSR1.ppp[2].ppp transmissionState:vector ETV
attr interpolationmode sample-hold
attr recordingmode vector
attr source transmissionStateChanged
attr title "tx state"
63	305564 160 0 743 0 0.043013333333 7 0 1 3 3
vector 64 RSVPTE4.LSR1.ppp[2].ppp txPk:vector(packetBytes) ETV
attr interpolationmode none
attr recordingmode vector(packetBytes)
attr source packetSentToLower
attr title "packets transmitted, packetBytes"
64	305724 78 311 723 0.022173333333 0.042173333333 3 63 63 189 11907
vector 65 RSVPTE4.LSR1.ppp[2].ppp rxPkOk:vector(packetBytes) ETV
attr interpolationmode none
attr recordingmode vector(packetBytes)
attr source rxPkOk
attr title "packets received OK, packetBytes"
65	305802 3316 293 15555 0.022173333333 1.182173333333 117 163 163 19071 3108573
vector 68 RSVPTE4.LSR1.ppp[2].ppp rcvdPkFromHl:vector(packetBytes) ETV
attr interpolationmode none
attr recordingmode vector(packetBytes)
attr source packetReceivedFromUpper
attr title "packets received from higher layer, packetBytes"
68	309118 78 311 723 0.022173333333 0.042173333333 3 56 56 168 9408
vector 69 RSVPTE4.LSR1.ppp[2].ppp passedUpPk:vector(packetBytes) ETV
attr interpolationmode none
attr recordingmode vector(packetBytes)
attr source packetSentToUpper
attr title "packets passed to higher layer, packetBytes"
69	309196 3316 293 15555 0.022173333333 1.182173333333 117 156 156 18252 2847312
vector 72 RSVPTE4.LSR1.ppp[3].queue queueLength:vector ETV
attr autoWarmupFilter false
attr interpolationmode sample-hold
attr recordingmode vector
attr source "warmup(atomic(constant0(packetPushEnded) + count(packetPushStarted) - count(packetPulled) - count(packetRemoved) - count(packetDropped)))"
attr title "queue length"
attr unit pk
72	312512 125 0 722 0 0.042173333333 8 0 0 0 0
vector 73 RSVPTE4.LSR1.ppp[3].queue queueBitLength:vector ETV
attr autoWarmupFilter false
attr interpolationmode sample-hold
attr recordingmode vector
attr source "warmup(atomic(constant0(packetPushEnded) + sum(packetLength(packetPushStarted)) - sum(packetLength(packetPulled)) - sum(packetLength(packetRemoved)) - sum(packetLength(packetDropped))))"
attr title "queue bit length"
attr unit b
73	312637 125 0 722 0 0.042173333333 8 0 0 0 0
vector 74 RSVPTE4.LSR1.ppp[3].queue queueingTime:vector ETV
attr interpolationmode none
attr recordingmode vector
attr source queueingTime(packetPulled)
attr title "queueing times"
attr unit s
74	312762 75 310 722 0.022173333333 0.042173333333 3 0 0 0 0
vector 75 RSVPTE4.LSR1.ppp[3].queue incomingPacketLengths:vector ETV
attr interpolationmode none
attr recordingmode vector
attr source packetLength(packetPushStarted)
attr title "incoming packet lengths"
attr unit b
75	312837 81 310 722 0.022173333333 0.042173333333 3 448 448 1344 602112
vector 76 RSVPTE4.LSR1.ppp[3].queue incomingDataRate:vector ETV
attr interpolationmode linear
attr recordingmode vector
attr source throughput(packetPushStarted)
attr title "incoming datarate"
attr unit bps
76	958558 205 15562 15562 0.1 1.182173333333 12 0 13440 13440 180633600
vector 77 RSVPTE4.LSR1.ppp[3].queue outgoingPacketLengths:vector ETV
attr interpolationmode none
attr recordingmode vector
attr source packetLength(packetPulled)
attr title "outgoing packet lengths"
attr unit b
77	312918 81 310 722 0.022173333333 0.042173333333 3 448 448 1344 602112
vector 78 RSVPTE4.LSR1.ppp[3].queue outgoingDataRate:vector ETV
attr interpolationmode linear
attr recordingmode vector
attr source throughput(packetPulled)
attr title "outgoing datarate"
attr unit bps
78	958763 205 15562 15562 0.1 1.182173333333 12 0 13440 13440 180633600
vector 83 RSVPTE4.LSR1.ppp[3].ppp transmissionState:vector ETV
attr interpolationmode sample-hold
attr recordingmode vector
attr source transmissionStateChanged
attr title "tx state"
83	312999 160 0 742 0 0.043013333333 7 0 1 3 3
vector 84 RSVPTE4.LSR1.ppp[3].ppp txPk:vector(packetBytes) ETV
attr interpolationmode none
attr recordingmode vector(packetBytes)
attr source packetSentToLower
attr title "packets transmitted, packetBytes"
84	313159 78 310 722 0.022173333333 0.042173333333 3 63 63 189 11907
vector 85 RSVPTE4.LSR1.ppp[3].ppp rxPkOk:vector(packetBytes) ETV
attr interpolationmode none
attr recordingmode vector(packetBytes)
attr source rxPkOk
attr title "packets received OK, packetBytes"
85	313237 3316 292 15554 0.022173333333 1.182173333333 117 163 163 19071 3108573
vector 88 RSVPTE4.LSR1.ppp[3].ppp rcvdPkFromHl:vector(packetBytes) ETV
attr interpolationmode none
attr recordingmode vector(packetBytes)
attr source packetReceivedFromUpper
attr title "packets received from higher layer, packetBytes"
88	316553 78 310 722 0.022173333333 0.042173333333 3 56 56 168 9408
vector 89 RSVPTE4.LSR1.ppp[3].ppp passedUpPk:vector(packetBytes) ETV
attr interpolationmode none
attr recordingmode vector(packetBytes)
attr source packetSentToUpper
attr title "packets passed to higher layer, packetBytes"
89	316631 3316 292 15554 0.022173333333 1.182173333333 117 156 156 18252 2847312
vector 92 RSVPTE4.LSR1.ppp[4].queue queueLength:vector ETV
attr autoWarmupFilter false
attr interpolationmode sample-hold
attr recordingmode vector
attr source "warmup(atomic(constant0(packetPushEnded) + count(packetPushStarted) - count(packetPulled) - count(packetRemoved) - count(packetDropped)))"
attr title "queue length"
attr unit pk
92	319947 125 0 724 0 0.042173333333 8 0 0 0 0
vector 93 RSVPTE4.LSR1.ppp[4].queue queueBitLength:vector ETV
attr autoWarmupFilter false
attr interpolationmode sample-hold
attr recordingmode vector
attr source "warmup(atomic(constant0(packetPushEnded) + sum(packetLength(packetPushStarted)) - sum(packetLength(packetPulled)) - sum(packetLength(packetRemoved)) - sum(packetLength(packetDropped))))"
attr title "queue bit length"
attr unit b
93	320072 125 0 724 0 0.042173333333 8 0 0 0 0
vector 94 RSVPTE4.LSR1.ppp[4].queue queueingTime:vector ETV
attr interpolationmode none
attr recordingmode vector
attr source queueingTime(packetPulled)
attr title "queueing times"
attr unit s
94	320197 75 312 724 0.022173333333 0.042173333333 3 0 0 0 0
vector 95 RSVPTE4.LSR1.ppp[4].queue incomingPacketLengths:vector ETV
attr interpolationmode none
attr recordingmode vector
attr source packetLength(packetPushStarted)
attr title "incoming packet lengths"
attr unit b
95	320272 81 312 724 0.022173333333 0.042173333333 3 448 448 1344 602112
vector 96 RSVPTE4.LSR1.ppp[4].queue incomingDataRate:vector ETV
attr interpolationmode linear
attr recordingmode vector
attr source throughput(packetPushStarted)
attr title "incoming datarate"
attr unit bps
96	958968 205 15562 15562 0.1 1.182173333333 12 0 13440 13440 180633600
vector 97 RSVPTE4.LSR1.ppp[4].queue outgoingPacketLengths:vector ETV
attr interpolationmode none
attr recordingmode vector
attr source packetLength(packetPulled)
attr title "outgoing packet lengths"
attr unit b
97	320353 81 312 724 0.022173333333 0.042173333333 3 448 448 1344 602112
vector 98 RSVPTE4.LSR1.ppp[4].queue outgoingDataRate:vector ETV
attr interpolationmode linear
attr recordingmode vector
attr source throughput(packetPulled)
attr title "outgoing datarate"
attr unit bps
98	959173 205 15562 15562 0.1 1.182173333333 12 0 13440 13440 180633600
vector 103 RSVPTE4.LSR1.ppp[4].ppp transmissionState:vector ETV
attr interpolationmode sample-hold
attr recordingmode vector
attr source transmissionStateChanged
attr title "tx state"
103	320434 167 0 744 0 0.043013333333 7 0 1 3 3
vector 104 RSVPTE4.LSR1.ppp[4].ppp txPk:vector(packetBytes) ETV
attr interpolationmode none
attr recordingmode vector(packetBytes)
attr source packetSentToLower
attr title "packets transmitted, packetBytes"
104	320601 81 312 724 0.022173333333 0.042173333333 3 63 63 189 11907
vector 105 RSVPTE4.LSR1.ppp[4].ppp rxPkOk:vector(packetBytes) ETV
attr interpolationmode none
attr recordingmode vector(packetBytes)
attr source rxPkOk
attr title "packets received OK, packetBytes"
105	320682 3433 294 15556 0.022173333333 1.182173333333 117 163 163 19071 3108573
vector 108 RSVPTE4.LSR1.ppp[4].ppp rcvdPkFromHl:vector(packetBytes) ETV
attr interpolationmode none
attr recordingmode vector(packetBytes)
attr source packetReceivedFromUpper
attr title "packets received from higher layer, packetBytes"
108	324115 81 312 724 0.022173333333 0.042173333333 3 56 56 168 9408
vector 109 RSVPTE4.LSR1.ppp[4].ppp passedUpPk:vector(packetBytes) ETV
attr interpolationmode none
attr recordingmode vector(packetBytes)
attr source packetSentToUpper
attr title "packets passed to higher layer, packetBytes"
109	324196 3433 294 15556 0.022173333333 1.182173333333 117 156 156 18252 2847312
vector 124 RSVPTE4.LSR2.ppp[0].queue queueLength:vector ETV
attr autoWarmupFilter false
attr interpolationmode sample-hold
attr recordingmode vector
attr source "warmup(atomic(constant0(packetPushEnded) + count(packetPushStarted) - count(packetPulled) - count(packetRemoved) - count(packetDropped)))"
attr title "queue length"
attr unit pk
124	327629 1311 0 14030 0 1.06768 54 0 3 26 48
vector 125 RSVPTE4.LSR2.ppp[0].queue queueBitLength:vector ETV
attr autoWarmupFilter false
attr interpolationmode sample-hold
attr recordingmode vector
attr source "warmup(atomic(constant0(packetPushEnded) + sum(packetLength(packetPushStarted)) - sum(packetLength(packetPulled)) - sum(packetLength(packetRemoved)) - sum(packetLength(packetDropped))))"
attr title "queue bit length"
attr unit b
125	328940 1354 0 14030 0 1.06768 54 0 10528 32152 157132224
vector 126 RSVPTE4.LSR2.ppp[0].queue queueingTime:vector ETV
attr interpolationmode none
attr recordingmode vector
attr source queueingTime(packetPulled)
attr title "queueing times"
attr unit s
126	330294 1094 123 14030 0.013091281637 1.06768 37 0 0.017344760484 0.045949164962 0.00041191430801491
vector 127 RSVPTE4.LSR2.ppp[0].queue incomingPacketLengths:vector ETV
attr interpolationmode none
attr recordingmode vector
attr source packetLength(packetPushStarted)
attr title "incoming packet lengths"
attr unit b
127	331388 1041 123 13985 0.013091281637 1.0656 37 168 10528 41216 155907584
vector 128 RSVPTE4.LSR2.ppp[0].queue incomingDataRate:vector ETV
attr interpolationmode linear
attr recordingmode vector
attr source throughput(packetPushStarted)
attr title "incoming datarate"
attr unit bps
128	332429 188 2060 13392 0.1 1 10 0 265280 363680 76524288000
128	959378 49 15562 15562 1.1 1.182173333333 2 0 48480 48480 2350310400
vector 129 RSVPTE4.LSR2.ppp[0].queue outgoingPacketLengths:vector ETV
attr interpolationmode none
attr recordingmode vector
attr source packetLength(packetPulled)
attr title "outgoing packet lengths"
attr unit b
129	332617 1042 123 14030 0.013091281637 1.06768 37 168 10528 41216 155907584
vector 130 RSVPTE4.LSR2.ppp[0].queue outgoingDataRate:vector ETV
attr interpolationmode linear
attr recordingmode vector
attr source throughput(packetPulled)
attr title "outgoing datarate"
attr unit bps
130	333659 188 2060 13392 0.1 1 10 0 265280 363680 76524288000
130	959427 49 15562 15562 1.1 1.182173333333 2 0 48480 48480 2350310400
vector 135 RSVPTE4.LSR2.ppp[0].ppp transmissionState:vector ETV
attr interpolationmode sample-hold
attr recordingmode vector
attr source transmissionStateChanged
attr title "tx state"
135	333847 1934 0 14074 0 1.069 75 0 1 37 37
vector 136 RSVPTE4.LSR2.ppp[0].ppp txPk:vector(packetBytes) ETV
attr interpolationmode none
attr recordingmode vector(packetBytes)
attr source packetSentToLower
attr title "packets transmitted, packetBytes"
136	335781 1005 123 14030 0.013091281637 1.06768 37 28 1323 5411 2509997
vector 137 RSVPTE4.LSR2.ppp[0].ppp rxPkOk:vector(packetBytes) ETV
attr interpolationmode none
attr recordingmode vector(packetBytes)
attr source rxPkOk
attr title "packets received OK, packetBytes"
137	336786 10367 381 15546 0.028118745046 1.181626666667 357 28 1035 57432 10251594
vector 140 RSVPTE4.LSR2.ppp[0].ppp rcvdPkFromHl:vector(packetBytes) ETV
attr interpolationmode none
attr recordingmode vector(packetBytes)
attr source packetReceivedFromUpper
attr title "packets received from higher layer, packetBytes"
140	347153 1005 123 14030 0.013091281637 1.06768 37 21 1316 5152 2436056
vector 141 RSVPTE4.LSR2.ppp[0].ppp passedUpPk:vector(packetBytes) ETV
attr interpolationmode none
attr recordingmode vector(packetBytes)
attr source packetSentToUpper
attr title "packets passed to higher layer, packetBytes"
141	348158 10367 381 15546 0.028118745046 1.181626666667 357 21 1028 54933 9465039
vector 144 RSVPTE4.LSR2.ppp[1].queue queueLength:vector ETV
attr autoWarmupFilter false
attr interpolationmode sample-hold
attr recordingmode vector
attr source "warmup(atomic(constant0(packetPushEnded) + count(packetPushStarted) - count(packetPulled) - count(packetRemoved) - count(packetDropped)))"
attr title "queue length"
attr unit pk
144	358525 10185 0 15527 0 1.1794 379 0 2 47 61
vector 145 RSVPTE4.LSR2.ppp[1].queue queueBitLength:vector ETV
attr autoWarmupFilter false
attr interpolationmode sample-hold
attr recordingmode vector
attr source "warmup(atomic(constant0(packetPushEnded) + sum(packetLength(packetPushStarted)) - sum(packetLength(packetPulled)) - sum(packetLength(packetRemoved)) - sum(packetLength(packetDropped))))"
attr title "queue bit length"
attr unit b
145	368710 10290 0 15527 0 1.1794 379 0 4928 48736 90923520
vector 146 RSVPTE4.LSR2.ppp[1].queue queueingTime:vector ETV
attr interpolationmode none
attr recordingmode vector
attr source queueingTime(packetPulled)
attr title "queueing times"
attr unit s
146	379000 9651 122 15527 0.013091281637 1.1794 341 0 0.006556818154 0.042152356585 0.00010582257703165
vector 147 RSVPTE4.LSR2.ppp[1].queue incomingPacketLengths:vector ETV
attr interpolationmode none
attr recordingmode vector
attr source packetLength(packetPushStarted)
attr title "incoming packet lengths"
attr unit b
147	388651 10233 122 15527 0.013091281637 1.1794 341 168 3616 419112 539954112
vector 148 RSVPTE4.LSR2.ppp[1].queue incomingDataRate:vector ETV
attr interpolationmode linear
attr recordingmode vector
attr source throughput(packetPushStarted)
attr title "incoming datarate"
attr unit bps
148	398884 233 1684 14917 0.1 1.1 11 261120 412880 4087040 1533687129600
148	959476 41 15562 15562 1.182173333333 1.182173333333 1 126659.0945973 126659.0945973 126659.0945973 16042526244.208
vector 149 RSVPTE4.LSR2.ppp[1].queue outgoingPacketLengths:vector ETV
attr interpolationmode none
attr recordingmode vector
attr source packetLength(packetPulled)
attr title "outgoing packet lengths"
attr unit b
149	399117 10248 122 15527 0.013091281637 1.1794 341 168 3616 419112 539954112
vector 150 RSVPTE4.LSR2.ppp[1].queue outgoingDataRate:vector ETV
attr interpolationmode linear
attr recordingmode vector
attr source throughput(packetPulled)
attr title "outgoing datarate"
attr unit bps
150	409365 233 1684 14917 0.1 1.1 11 261120 412880 4087040 1533687129600
150	959517 41 15562 15562 1.182173333333 1.182173333333 1 126659.0945973 126659.0945973 126659.0945973 16042526244.208
vector 155 RSVPTE4.LSR2.ppp[1].ppp transmissionState:vector ETV
attr interpolationmode sample-hold
attr recordingmode vector
attr source transmissionStateChanged
attr title "tx state"
155	409598 18548 0 15548 0 1.181626666667 683 0 1 341 341
vector 156 RSVPTE4.LSR2.ppp[1].ppp txPk:vector(packetBytes) ETV
attr interpolationmode none
attr recordingmode vector(packetBytes)
attr source packetSentToLower
attr title "packets transmitted, packetBytes"
156	428146 9908 122 15527 0.013091281637 1.1794 341 28 459 54776 9186938
vector 157 RSVPTE4.LSR2.ppp[1].ppp rxPkOk:vector(packetBytes) ETV
attr interpolationmode none
attr recordingmode vector(packetBytes)
attr source rxPkOk
attr title "packets received OK, packetBytes"
157	438054 975 92 15048 0.013091281637 1.12047717271 36 28 1507 5449 2962329
vector 160 RSVPTE4.LSR2.ppp[1].ppp rcvdPkFromHl:vector(packetBytes) ETV
attr interpolationmode none
attr recordingmode vector(packetBytes)
attr source packetReceivedFromUpper
attr title "packets received from higher layer, packetBytes"
160	439029 9908 122 15527 0.013091281637 1.1794 341 21 452 52389 8436783
vector 161 RSVPTE4.LSR2.ppp[1].ppp passedUpPk:vector(packetBytes) ETV
attr interpolationmode none
attr recordingmode vector(packetBytes)
attr source packetSentToUpper
attr title "packets passed to higher layer, packetBytes"
161	448937 975 92 15048 0.013091281637 1.12047717271 36 21 1500 5197 2887807
vector 164 RSVPTE4.LSR2.ppp[2].queue queueLength:vector ETV
attr autoWarmupFilter false
attr interpolationmode sample-hold
attr recordingmode vector
attr source "warmup(atomic(constant0(packetPushEnded) + count(packetPushStarted) - count(packetPulled) - count(packetRemoved) - count(packetDropped)))"
attr title "queue length"
attr unit pk
164	449912 1461 0 15552 0 1.181626666667 59 0 3 16 28
vector 165 RSVPTE4.LSR2.ppp[2].queue queueBitLength:vector ETV
attr autoWarmupFilter false
attr interpolationmode sample-hold
attr recordingmode vector
attr source "warmup(atomic(constant0(packetPushEnded) + sum(packetLength(packetPushStarted)) - sum(packetLength(packetPulled)) - sum(packetLength(packetRemoved)) - sum(packetLength(packetDropped))))"
attr title "queue bit length"
attr unit b
165	451373 1490 0 15552 0 1.181626666667 59 0 7968 39424 223412224
vector 166 RSVPTE4.LSR2.ppp[2].queue queueingTime:vector ETV
attr interpolationmode none
attr recordingmode vector
attr source queueingTime(packetPulled)
attr title "queueing times"
attr unit s
166	452863 1288 124 15552 0.013091281637 1.181626666667 46 0 0.01185219543 0.041442498294 0.00038726136965231
vector 167 RSVPTE4.LSR2.ppp[2].queue incomingPacketLengths:vector ETV